# vtk DataFile Version 3.0
Triangulation generated with deal.II
ASCII
DATASET UNSTRUCTURED_GRID
POINTS 8 double
0 0 0
0.142857 0 0
0.285714 0 0
0.428571 0 0
0.571429 0 0
0.714286 0 0
0.857143 0 0
1 0 0

CELLS 7 21
2 0 1
2 1 2
2 2 3
2 3 4
2 4 5
2 5 6
2 6 7

CELL_TYPES 7
3 3 3 3 3 3 3 



CELL_DATA 7
SCALARS MaterialID int 1
LOOKUP_TABLE default
1 1 1 1 1 1 1 



SCALARS ManifoldID int 1
LOOKUP_TABLE default
-1 -1 -1 -1 -1 -1 -1 


