# vtk DataFile Version 3.0
Triangulation generated with deal.II
ASCII
DATASET UNSTRUCTURED_GRID
POINTS 4 double
0 0 0
0.333333 0 0
0.666667 0 0
1 0 0

CELLS 3 9
2 0 1
2 1 2
2 2 3

CELL_TYPES 3
3 3 3 



CELL_DATA 3
SCALARS MaterialID int 1
LOOKUP_TABLE default
1 1 1 



SCALARS ManifoldID int 1
LOOKUP_TABLE default
-1 -1 -1 


