# vtk DataFile Version 3.0
Triangulation generated with deal.II
ASCII
DATASET UNSTRUCTURED_GRID
POINTS 16 double
0 0 0
0.0666667 0 0
0.133333 0 0
0.2 0 0
0.266667 0 0
0.333333 0 0
0.4 0 0
0.466667 0 0
0.533333 0 0
0.6 0 0
0.666667 0 0
0.733333 0 0
0.8 0 0
0.866667 0 0
0.933333 0 0
1 0 0

CELLS 15 45
2 0 1
2 1 2
2 2 3
2 3 4
2 4 5
2 5 6
2 6 7
2 7 8
2 8 9
2 9 10
2 10 11
2 11 12
2 12 13
2 13 14
2 14 15

CELL_TYPES 15
3 3 3 3 3 3 3 3 3 3 3 3 3 3 3 



CELL_DATA 15
SCALARS MaterialID int 1
LOOKUP_TABLE default
1 1 1 1 1 1 1 1 1 1 1 1 1 1 1 



SCALARS ManifoldID int 1
LOOKUP_TABLE default
-1 -1 -1 -1 -1 -1 -1 -1 -1 -1 -1 -1 -1 -1 -1 


