# vtk DataFile Version 3.0
Triangulation generated with deal.II
ASCII
DATASET UNSTRUCTURED_GRID
POINTS 500 double
0 0 0
0.00200401 0 0
0.00400802 0 0
0.00601202 0 0
0.00801603 0 0
0.01002 0 0
0.012024 0 0
0.0140281 0 0
0.0160321 0 0
0.0180361 0 0
0.0200401 0 0
0.0220441 0 0
0.0240481 0 0
0.0260521 0 0
0.0280561 0 0
0.0300601 0 0
0.0320641 0 0
0.0340681 0 0
0.0360721 0 0
0.0380762 0 0
0.0400802 0 0
0.0420842 0 0
0.0440882 0 0
0.0460922 0 0
0.0480962 0 0
0.0501002 0 0
0.0521042 0 0
0.0541082 0 0
0.0561122 0 0
0.0581162 0 0
0.0601202 0 0
0.0621242 0 0
0.0641283 0 0
0.0661323 0 0
0.0681363 0 0
0.0701403 0 0
0.0721443 0 0
0.0741483 0 0
0.0761523 0 0
0.0781563 0 0
0.0801603 0 0
0.0821643 0 0
0.0841683 0 0
0.0861723 0 0
0.0881764 0 0
0.0901804 0 0
0.0921844 0 0
0.0941884 0 0
0.0961924 0 0
0.0981964 0 0
0.1002 0 0
0.102204 0 0
0.104208 0 0
0.106212 0 0
0.108216 0 0
0.11022 0 0
0.112224 0 0
0.114228 0 0
0.116232 0 0
0.118236 0 0
0.12024 0 0
0.122244 0 0
0.124248 0 0
0.126253 0 0
0.128257 0 0
0.130261 0 0
0.132265 0 0
0.134269 0 0
0.136273 0 0
0.138277 0 0
0.140281 0 0
0.142285 0 0
0.144289 0 0
0.146293 0 0
0.148297 0 0
0.150301 0 0
0.152305 0 0
0.154309 0 0
0.156313 0 0
0.158317 0 0
0.160321 0 0
0.162325 0 0
0.164329 0 0
0.166333 0 0
0.168337 0 0
0.170341 0 0
0.172345 0 0
0.174349 0 0
0.176353 0 0
0.178357 0 0
0.180361 0 0
0.182365 0 0
0.184369 0 0
0.186373 0 0
0.188377 0 0
0.190381 0 0
0.192385 0 0
0.194389 0 0
0.196393 0 0
0.198397 0 0
0.200401 0 0
0.202405 0 0
0.204409 0 0
0.206413 0 0
0.208417 0 0
0.210421 0 0
0.212425 0 0
0.214429 0 0
0.216433 0 0
0.218437 0 0
0.220441 0 0
0.222445 0 0
0.224449 0 0
0.226453 0 0
0.228457 0 0
0.230461 0 0
0.232465 0 0
0.234469 0 0
0.236473 0 0
0.238477 0 0
0.240481 0 0
0.242485 0 0
0.244489 0 0
0.246493 0 0
0.248497 0 0
0.250501 0 0
0.252505 0 0
0.254509 0 0
0.256513 0 0
0.258517 0 0
0.260521 0 0
0.262525 0 0
0.264529 0 0
0.266533 0 0
0.268537 0 0
0.270541 0 0
0.272545 0 0
0.274549 0 0
0.276553 0 0
0.278557 0 0
0.280561 0 0
0.282565 0 0
0.284569 0 0
0.286573 0 0
0.288577 0 0
0.290581 0 0
0.292585 0 0
0.294589 0 0
0.296593 0 0
0.298597 0 0
0.300601 0 0
0.302605 0 0
0.304609 0 0
0.306613 0 0
0.308617 0 0
0.310621 0 0
0.312625 0 0
0.314629 0 0
0.316633 0 0
0.318637 0 0
0.320641 0 0
0.322645 0 0
0.324649 0 0
0.326653 0 0
0.328657 0 0
0.330661 0 0
0.332665 0 0
0.334669 0 0
0.336673 0 0
0.338677 0 0
0.340681 0 0
0.342685 0 0
0.344689 0 0
0.346693 0 0
0.348697 0 0
0.350701 0 0
0.352705 0 0
0.354709 0 0
0.356713 0 0
0.358717 0 0
0.360721 0 0
0.362725 0 0
0.364729 0 0
0.366733 0 0
0.368737 0 0
0.370741 0 0
0.372745 0 0
0.374749 0 0
0.376754 0 0
0.378758 0 0
0.380762 0 0
0.382766 0 0
0.38477 0 0
0.386774 0 0
0.388778 0 0
0.390782 0 0
0.392786 0 0
0.39479 0 0
0.396794 0 0
0.398798 0 0
0.400802 0 0
0.402806 0 0
0.40481 0 0
0.406814 0 0
0.408818 0 0
0.410822 0 0
0.412826 0 0
0.41483 0 0
0.416834 0 0
0.418838 0 0
0.420842 0 0
0.422846 0 0
0.42485 0 0
0.426854 0 0
0.428858 0 0
0.430862 0 0
0.432866 0 0
0.43487 0 0
0.436874 0 0
0.438878 0 0
0.440882 0 0
0.442886 0 0
0.44489 0 0
0.446894 0 0
0.448898 0 0
0.450902 0 0
0.452906 0 0
0.45491 0 0
0.456914 0 0
0.458918 0 0
0.460922 0 0
0.462926 0 0
0.46493 0 0
0.466934 0 0
0.468938 0 0
0.470942 0 0
0.472946 0 0
0.47495 0 0
0.476954 0 0
0.478958 0 0
0.480962 0 0
0.482966 0 0
0.48497 0 0
0.486974 0 0
0.488978 0 0
0.490982 0 0
0.492986 0 0
0.49499 0 0
0.496994 0 0
0.498998 0 0
0.501002 0 0
0.503006 0 0
0.50501 0 0
0.507014 0 0
0.509018 0 0
0.511022 0 0
0.513026 0 0
0.51503 0 0
0.517034 0 0
0.519038 0 0
0.521042 0 0
0.523046 0 0
0.52505 0 0
0.527054 0 0
0.529058 0 0
0.531062 0 0
0.533066 0 0
0.53507 0 0
0.537074 0 0
0.539078 0 0
0.541082 0 0
0.543086 0 0
0.54509 0 0
0.547094 0 0
0.549098 0 0
0.551102 0 0
0.553106 0 0
0.55511 0 0
0.557114 0 0
0.559118 0 0
0.561122 0 0
0.563126 0 0
0.56513 0 0
0.567134 0 0
0.569138 0 0
0.571142 0 0
0.573146 0 0
0.57515 0 0
0.577154 0 0
0.579158 0 0
0.581162 0 0
0.583166 0 0
0.58517 0 0
0.587174 0 0
0.589178 0 0
0.591182 0 0
0.593186 0 0
0.59519 0 0
0.597194 0 0
0.599198 0 0
0.601202 0 0
0.603206 0 0
0.60521 0 0
0.607214 0 0
0.609218 0 0
0.611222 0 0
0.613226 0 0
0.61523 0 0
0.617234 0 0
0.619238 0 0
0.621242 0 0
0.623246 0 0
0.625251 0 0
0.627255 0 0
0.629259 0 0
0.631263 0 0
0.633267 0 0
0.635271 0 0
0.637275 0 0
0.639279 0 0
0.641283 0 0
0.643287 0 0
0.645291 0 0
0.647295 0 0
0.649299 0 0
0.651303 0 0
0.653307 0 0
0.655311 0 0
0.657315 0 0
0.659319 0 0
0.661323 0 0
0.663327 0 0
0.665331 0 0
0.667335 0 0
0.669339 0 0
0.671343 0 0
0.673347 0 0
0.675351 0 0
0.677355 0 0
0.679359 0 0
0.681363 0 0
0.683367 0 0
0.685371 0 0
0.687375 0 0
0.689379 0 0
0.691383 0 0
0.693387 0 0
0.695391 0 0
0.697395 0 0
0.699399 0 0
0.701403 0 0
0.703407 0 0
0.705411 0 0
0.707415 0 0
0.709419 0 0
0.711423 0 0
0.713427 0 0
0.715431 0 0
0.717435 0 0
0.719439 0 0
0.721443 0 0
0.723447 0 0
0.725451 0 0
0.727455 0 0
0.729459 0 0
0.731463 0 0
0.733467 0 0
0.735471 0 0
0.737475 0 0
0.739479 0 0
0.741483 0 0
0.743487 0 0
0.745491 0 0
0.747495 0 0
0.749499 0 0
0.751503 0 0
0.753507 0 0
0.755511 0 0
0.757515 0 0
0.759519 0 0
0.761523 0 0
0.763527 0 0
0.765531 0 0
0.767535 0 0
0.769539 0 0
0.771543 0 0
0.773547 0 0
0.775551 0 0
0.777555 0 0
0.779559 0 0
0.781563 0 0
0.783567 0 0
0.785571 0 0
0.787575 0 0
0.789579 0 0
0.791583 0 0
0.793587 0 0
0.795591 0 0
0.797595 0 0
0.799599 0 0
0.801603 0 0
0.803607 0 0
0.805611 0 0
0.807615 0 0
0.809619 0 0
0.811623 0 0
0.813627 0 0
0.815631 0 0
0.817635 0 0
0.819639 0 0
0.821643 0 0
0.823647 0 0
0.825651 0 0
0.827655 0 0
0.829659 0 0
0.831663 0 0
0.833667 0 0
0.835671 0 0
0.837675 0 0
0.839679 0 0
0.841683 0 0
0.843687 0 0
0.845691 0 0
0.847695 0 0
0.849699 0 0
0.851703 0 0
0.853707 0 0
0.855711 0 0
0.857715 0 0
0.859719 0 0
0.861723 0 0
0.863727 0 0
0.865731 0 0
0.867735 0 0
0.869739 0 0
0.871743 0 0
0.873747 0 0
0.875752 0 0
0.877756 0 0
0.87976 0 0
0.881764 0 0
0.883768 0 0
0.885772 0 0
0.887776 0 0
0.88978 0 0
0.891784 0 0
0.893788 0 0
0.895792 0 0
0.897796 0 0
0.8998 0 0
0.901804 0 0
0.903808 0 0
0.905812 0 0
0.907816 0 0
0.90982 0 0
0.911824 0 0
0.913828 0 0
0.915832 0 0
0.917836 0 0
0.91984 0 0
0.921844 0 0
0.923848 0 0
0.925852 0 0
0.927856 0 0
0.92986 0 0
0.931864 0 0
0.933868 0 0
0.935872 0 0
0.937876 0 0
0.93988 0 0
0.941884 0 0
0.943888 0 0
0.945892 0 0
0.947896 0 0
0.9499 0 0
0.951904 0 0
0.953908 0 0
0.955912 0 0
0.957916 0 0
0.95992 0 0
0.961924 0 0
0.963928 0 0
0.965932 0 0
0.967936 0 0
0.96994 0 0
0.971944 0 0
0.973948 0 0
0.975952 0 0
0.977956 0 0
0.97996 0 0
0.981964 0 0
0.983968 0 0
0.985972 0 0
0.987976 0 0
0.98998 0 0
0.991984 0 0
0.993988 0 0
0.995992 0 0
0.997996 0 0
1 0 0

CELLS 499 1497
2 0 1
2 1 2
2 2 3
2 3 4
2 4 5
2 5 6
2 6 7
2 7 8
2 8 9
2 9 10
2 10 11
2 11 12
2 12 13
2 13 14
2 14 15
2 15 16
2 16 17
2 17 18
2 18 19
2 19 20
2 20 21
2 21 22
2 22 23
2 23 24
2 24 25
2 25 26
2 26 27
2 27 28
2 28 29
2 29 30
2 30 31
2 31 32
2 32 33
2 33 34
2 34 35
2 35 36
2 36 37
2 37 38
2 38 39
2 39 40
2 40 41
2 41 42
2 42 43
2 43 44
2 44 45
2 45 46
2 46 47
2 47 48
2 48 49
2 49 50
2 50 51
2 51 52
2 52 53
2 53 54
2 54 55
2 55 56
2 56 57
2 57 58
2 58 59
2 59 60
2 60 61
2 61 62
2 62 63
2 63 64
2 64 65
2 65 66
2 66 67
2 67 68
2 68 69
2 69 70
2 70 71
2 71 72
2 72 73
2 73 74
2 74 75
2 75 76
2 76 77
2 77 78
2 78 79
2 79 80
2 80 81
2 81 82
2 82 83
2 83 84
2 84 85
2 85 86
2 86 87
2 87 88
2 88 89
2 89 90
2 90 91
2 91 92
2 92 93
2 93 94
2 94 95
2 95 96
2 96 97
2 97 98
2 98 99
2 99 100
2 100 101
2 101 102
2 102 103
2 103 104
2 104 105
2 105 106
2 106 107
2 107 108
2 108 109
2 109 110
2 110 111
2 111 112
2 112 113
2 113 114
2 114 115
2 115 116
2 116 117
2 117 118
2 118 119
2 119 120
2 120 121
2 121 122
2 122 123
2 123 124
2 124 125
2 125 126
2 126 127
2 127 128
2 128 129
2 129 130
2 130 131
2 131 132
2 132 133
2 133 134
2 134 135
2 135 136
2 136 137
2 137 138
2 138 139
2 139 140
2 140 141
2 141 142
2 142 143
2 143 144
2 144 145
2 145 146
2 146 147
2 147 148
2 148 149
2 149 150
2 150 151
2 151 152
2 152 153
2 153 154
2 154 155
2 155 156
2 156 157
2 157 158
2 158 159
2 159 160
2 160 161
2 161 162
2 162 163
2 163 164
2 164 165
2 165 166
2 166 167
2 167 168
2 168 169
2 169 170
2 170 171
2 171 172
2 172 173
2 173 174
2 174 175
2 175 176
2 176 177
2 177 178
2 178 179
2 179 180
2 180 181
2 181 182
2 182 183
2 183 184
2 184 185
2 185 186
2 186 187
2 187 188
2 188 189
2 189 190
2 190 191
2 191 192
2 192 193
2 193 194
2 194 195
2 195 196
2 196 197
2 197 198
2 198 199
2 199 200
2 200 201
2 201 202
2 202 203
2 203 204
2 204 205
2 205 206
2 206 207
2 207 208
2 208 209
2 209 210
2 210 211
2 211 212
2 212 213
2 213 214
2 214 215
2 215 216
2 216 217
2 217 218
2 218 219
2 219 220
2 220 221
2 221 222
2 222 223
2 223 224
2 224 225
2 225 226
2 226 227
2 227 228
2 228 229
2 229 230
2 230 231
2 231 232
2 232 233
2 233 234
2 234 235
2 235 236
2 236 237
2 237 238
2 238 239
2 239 240
2 240 241
2 241 242
2 242 243
2 243 244
2 244 245
2 245 246
2 246 247
2 247 248
2 248 249
2 249 250
2 250 251
2 251 252
2 252 253
2 253 254
2 254 255
2 255 256
2 256 257
2 257 258
2 258 259
2 259 260
2 260 261
2 261 262
2 262 263
2 263 264
2 264 265
2 265 266
2 266 267
2 267 268
2 268 269
2 269 270
2 270 271
2 271 272
2 272 273
2 273 274
2 274 275
2 275 276
2 276 277
2 277 278
2 278 279
2 279 280
2 280 281
2 281 282
2 282 283
2 283 284
2 284 285
2 285 286
2 286 287
2 287 288
2 288 289
2 289 290
2 290 291
2 291 292
2 292 293
2 293 294
2 294 295
2 295 296
2 296 297
2 297 298
2 298 299
2 299 300
2 300 301
2 301 302
2 302 303
2 303 304
2 304 305
2 305 306
2 306 307
2 307 308
2 308 309
2 309 310
2 310 311
2 311 312
2 312 313
2 313 314
2 314 315
2 315 316
2 316 317
2 317 318
2 318 319
2 319 320
2 320 321
2 321 322
2 322 323
2 323 324
2 324 325
2 325 326
2 326 327
2 327 328
2 328 329
2 329 330
2 330 331
2 331 332
2 332 333
2 333 334
2 334 335
2 335 336
2 336 337
2 337 338
2 338 339
2 339 340
2 340 341
2 341 342
2 342 343
2 343 344
2 344 345
2 345 346
2 346 347
2 347 348
2 348 349
2 349 350
2 350 351
2 351 352
2 352 353
2 353 354
2 354 355
2 355 356
2 356 357
2 357 358
2 358 359
2 359 360
2 360 361
2 361 362
2 362 363
2 363 364
2 364 365
2 365 366
2 366 367
2 367 368
2 368 369
2 369 370
2 370 371
2 371 372
2 372 373
2 373 374
2 374 375
2 375 376
2 376 377
2 377 378
2 378 379
2 379 380
2 380 381
2 381 382
2 382 383
2 383 384
2 384 385
2 385 386
2 386 387
2 387 388
2 388 389
2 389 390
2 390 391
2 391 392
2 392 393
2 393 394
2 394 395
2 395 396
2 396 397
2 397 398
2 398 399
2 399 400
2 400 401
2 401 402
2 402 403
2 403 404
2 404 405
2 405 406
2 406 407
2 407 408
2 408 409
2 409 410
2 410 411
2 411 412
2 412 413
2 413 414
2 414 415
2 415 416
2 416 417
2 417 418
2 418 419
2 419 420
2 420 421
2 421 422
2 422 423
2 423 424
2 424 425
2 425 426
2 426 427
2 427 428
2 428 429
2 429 430
2 430 431
2 431 432
2 432 433
2 433 434
2 434 435
2 435 436
2 436 437
2 437 438
2 438 439
2 439 440
2 440 441
2 441 442
2 442 443
2 443 444
2 444 445
2 445 446
2 446 447
2 447 448
2 448 449
2 449 450
2 450 451
2 451 452
2 452 453
2 453 454
2 454 455
2 455 456
2 456 457
2 457 458
2 458 459
2 459 460
2 460 461
2 461 462
2 462 463
2 463 464
2 464 465
2 465 466
2 466 467
2 467 468
2 468 469
2 469 470
2 470 471
2 471 472
2 472 473
2 473 474
2 474 475
2 475 476
2 476 477
2 477 478
2 478 479
2 479 480
2 480 481
2 481 482
2 482 483
2 483 484
2 484 485
2 485 486
2 486 487
2 487 488
2 488 489
2 489 490
2 490 491
2 491 492
2 492 493
2 493 494
2 494 495
2 495 496
2 496 497
2 497 498
2 498 499

CELL_TYPES 499
3 3 3 3 3 3 3 3 3 3 3 3 3 3 3 3 3 3 3 3 3 3 3 3 3 3 3 3 3 3 3 3 3 3 3 3 3 3 3 3 3 3 3 3 3 3 3 3 3 3 3 3 3 3 3 3 3 3 3 3 3 3 3 3 3 3 3 3 3 3 3 3 3 3 3 3 3 3 3 3 3 3 3 3 3 3 3 3 3 3 3 3 3 3 3 3 3 3 3 3 3 3 3 3 3 3 3 3 3 3 3 3 3 3 3 3 3 3 3 3 3 3 3 3 3 3 3 3 3 3 3 3 3 3 3 3 3 3 3 3 3 3 3 3 3 3 3 3 3 3 3 3 3 3 3 3 3 3 3 3 3 3 3 3 3 3 3 3 3 3 3 3 3 3 3 3 3 3 3 3 3 3 3 3 3 3 3 3 3 3 3 3 3 3 3 3 3 3 3 3 3 3 3 3 3 3 3 3 3 3 3 3 3 3 3 3 3 3 3 3 3 3 3 3 3 3 3 3 3 3 3 3 3 3 3 3 3 3 3 3 3 3 3 3 3 3 3 3 3 3 3 3 3 3 3 3 3 3 3 3 3 3 3 3 3 3 3 3 3 3 3 3 3 3 3 3 3 3 3 3 3 3 3 3 3 3 3 3 3 3 3 3 3 3 3 3 3 3 3 3 3 3 3 3 3 3 3 3 3 3 3 3 3 3 3 3 3 3 3 3 3 3 3 3 3 3 3 3 3 3 3 3 3 3 3 3 3 3 3 3 3 3 3 3 3 3 3 3 3 3 3 3 3 3 3 3 3 3 3 3 3 3 3 3 3 3 3 3 3 3 3 3 3 3 3 3 3 3 3 3 3 3 3 3 3 3 3 3 3 3 3 3 3 3 3 3 3 3 3 3 3 3 3 3 3 3 3 3 3 3 3 3 3 3 3 3 3 3 3 3 3 3 3 3 3 3 3 3 3 3 3 3 3 3 3 3 3 3 3 3 3 3 3 3 3 3 3 3 3 3 3 3 3 3 3 3 3 3 3 3 3 3 3 3 3 3 3 3 3 3 3 3 3 3 3 3 3 3 3 3 3 3 3 3 3 3 3 3 3 3 3 3 3 3 3 3 3 3 3 



CELL_DATA 499
SCALARS MaterialID int 1
LOOKUP_TABLE default
1 1 1 1 1 1 1 1 1 1 1 1 1 1 1 1 1 1 1 1 1 1 1 1 1 1 1 1 1 1 1 1 1 1 1 1 1 1 1 1 1 1 1 1 1 1 1 1 1 1 1 1 1 1 1 1 1 1 1 1 1 1 1 1 1 1 1 1 1 1 1 1 1 1 1 1 1 1 1 1 1 1 1 1 1 1 1 1 1 1 1 1 1 1 1 1 1 1 1 1 1 1 1 1 1 1 1 1 1 1 1 1 1 1 1 1 1 1 1 1 1 1 1 1 1 1 1 1 1 1 1 1 1 1 1 1 1 1 1 1 1 1 1 1 1 1 1 1 1 1 1 1 1 1 1 1 1 1 1 1 1 1 1 1 1 1 1 1 1 1 1 1 1 1 1 1 1 1 1 1 1 1 1 1 1 1 1 1 1 1 1 1 1 1 1 1 1 1 1 1 1 1 1 1 1 1 1 1 1 1 1 1 1 1 1 1 1 1 1 1 1 1 1 1 1 1 1 1 1 1 1 1 1 1 1 1 1 1 1 1 1 1 1 1 1 1 1 1 1 1 1 1 1 1 1 1 1 1 1 1 1 1 1 1 1 1 1 1 1 1 1 1 1 1 1 1 1 1 1 1 1 1 1 1 1 1 1 1 1 1 1 1 1 1 1 1 1 1 1 1 1 1 1 1 1 1 1 1 1 1 1 1 1 1 1 1 1 1 1 1 1 1 1 1 1 1 1 1 1 1 1 1 1 1 1 1 1 1 1 1 1 1 1 1 1 1 1 1 1 1 1 1 1 1 1 1 1 1 1 1 1 1 1 1 1 1 1 1 1 1 1 1 1 1 1 1 1 1 1 1 1 1 1 1 1 1 1 1 1 1 1 1 1 1 1 1 1 1 1 1 1 1 1 1 1 1 1 1 1 1 1 1 1 1 1 1 1 1 1 1 1 1 1 1 1 1 1 1 1 1 1 1 1 1 1 1 1 1 1 1 1 1 1 1 1 1 1 1 1 1 1 1 1 1 1 1 1 1 1 1 1 1 1 1 1 1 1 1 1 1 1 1 1 1 1 1 1 1 1 1 1 1 1 1 1 1 1 1 1 1 1 1 1 1 1 1 1 1 1 



SCALARS ManifoldID int 1
LOOKUP_TABLE default
-1 -1 -1 -1 -1 -1 -1 -1 -1 -1 -1 -1 -1 -1 -1 -1 -1 -1 -1 -1 -1 -1 -1 -1 -1 -1 -1 -1 -1 -1 -1 -1 -1 -1 -1 -1 -1 -1 -1 -1 -1 -1 -1 -1 -1 -1 -1 -1 -1 -1 -1 -1 -1 -1 -1 -1 -1 -1 -1 -1 -1 -1 -1 -1 -1 -1 -1 -1 -1 -1 -1 -1 -1 -1 -1 -1 -1 -1 -1 -1 -1 -1 -1 -1 -1 -1 -1 -1 -1 -1 -1 -1 -1 -1 -1 -1 -1 -1 -1 -1 -1 -1 -1 -1 -1 -1 -1 -1 -1 -1 -1 -1 -1 -1 -1 -1 -1 -1 -1 -1 -1 -1 -1 -1 -1 -1 -1 -1 -1 -1 -1 -1 -1 -1 -1 -1 -1 -1 -1 -1 -1 -1 -1 -1 -1 -1 -1 -1 -1 -1 -1 -1 -1 -1 -1 -1 -1 -1 -1 -1 -1 -1 -1 -1 -1 -1 -1 -1 -1 -1 -1 -1 -1 -1 -1 -1 -1 -1 -1 -1 -1 -1 -1 -1 -1 -1 -1 -1 -1 -1 -1 -1 -1 -1 -1 -1 -1 -1 -1 -1 -1 -1 -1 -1 -1 -1 -1 -1 -1 -1 -1 -1 -1 -1 -1 -1 -1 -1 -1 -1 -1 -1 -1 -1 -1 -1 -1 -1 -1 -1 -1 -1 -1 -1 -1 -1 -1 -1 -1 -1 -1 -1 -1 -1 -1 -1 -1 -1 -1 -1 -1 -1 -1 -1 -1 -1 -1 -1 -1 -1 -1 -1 -1 -1 -1 -1 -1 -1 -1 -1 -1 -1 -1 -1 -1 -1 -1 -1 -1 -1 -1 -1 -1 -1 -1 -1 -1 -1 -1 -1 -1 -1 -1 -1 -1 -1 -1 -1 -1 -1 -1 -1 -1 -1 -1 -1 -1 -1 -1 -1 -1 -1 -1 -1 -1 -1 -1 -1 -1 -1 -1 -1 -1 -1 -1 -1 -1 -1 -1 -1 -1 -1 -1 -1 -1 -1 -1 -1 -1 -1 -1 -1 -1 -1 -1 -1 -1 -1 -1 -1 -1 -1 -1 -1 -1 -1 -1 -1 -1 -1 -1 -1 -1 -1 -1 -1 -1 -1 -1 -1 -1 -1 -1 -1 -1 -1 -1 -1 -1 -1 -1 -1 -1 -1 -1 -1 -1 -1 -1 -1 -1 -1 -1 -1 -1 -1 -1 -1 -1 -1 -1 -1 -1 -1 -1 -1 -1 -1 -1 -1 -1 -1 -1 -1 -1 -1 -1 -1 -1 -1 -1 -1 -1 -1 -1 -1 -1 -1 -1 -1 -1 -1 -1 -1 -1 -1 -1 -1 -1 -1 -1 -1 -1 -1 -1 -1 -1 -1 -1 -1 -1 -1 -1 -1 -1 -1 -1 -1 -1 -1 -1 -1 -1 -1 -1 -1 -1 -1 -1 -1 -1 -1 -1 -1 -1 -1 -1 -1 -1 -1 -1 -1 -1 -1 -1 -1 -1 -1 -1 -1 -1 -1 -1 -1 -1 -1 -1 -1 -1 


