# vtk DataFile Version 3.0
Triangulation generated with deal.II
ASCII
DATASET UNSTRUCTURED_GRID
POINTS 2 double
0 0 0
1 0 0

CELLS 1 3
2 0 1

CELL_TYPES 1
3 



CELL_DATA 1
SCALARS MaterialID int 1
LOOKUP_TABLE default
1 



SCALARS ManifoldID int 1
LOOKUP_TABLE default
-1 


